(written by ASE)

4096 atoms
1 atom types

0.0             34.47095504  xlo xhi
0.0             34.47095504  ylo yhi
0.0             34.47095504  zlo zhi

Atoms # atomic

     1   1     0.94926600000000005     0.79824874000000001      13.252064389999999
     2   1      2.3526454800000001      14.012941509999999              1.50539406
     3   1      14.707481639999999      9.6849315699999998      9.5404716900000004
     4   1      8.2941716000000003      2.7881864900000002      14.894291689999999
     5   1     0.81031171999999996      9.5116510000000005              1.97204622
     6   1             13.55120269              2.70561074      14.171758710000001
     7   1             17.05821516      3.2585861399999998      10.858792429999999
     8   1      10.810664320000001      1.4228947199999999             12.33050263
     9   1      3.3335734100000001      13.248238020000001      12.151288299999999
    10   1      4.9646145400000004             14.65677788              2.04143944
    11   1      5.1197100300000002      16.755135620000001             10.81430969
    12   1      6.5730715100000001      9.3470788700000007      9.8879144599999993
    13   1             10.83582315      8.5249751099999997      9.4913605800000003
    14   1      5.8742168899999996      9.6043285100000002      1.5218783300000001
    15   1      17.093558309999999      5.2195586399999998      4.3310935300000004
    16   1      8.4596769500000004      8.7181003700000002      13.376756439999999
    17   1      15.737531150000001      8.7185038000000006      13.278467839999999
    18   1             10.94778661      5.2969363700000001             15.77383343
    19   1      15.780546599999999      14.126293459999999      9.1120137700000008
    20   1      9.9652844900000002      12.214967529999999      3.5863294300000002
    21   1      2.2672002199999999      5.9045437999999999             10.45802456
    22   1      8.1198112200000008             10.71622472             16.73577804
    23   1    0.098670339999999995      2.8467414799999999               4.2224955
    24   1      9.2025046699999997      4.3134270499999996              7.06457289
    25   1             10.05779504             15.44747574      9.5627844799999995
    26   1      11.082933150000001      6.7788237699999998             14.67341658
    27   1      4.6253127000000003              10.1626286      16.164577130000001
    28   1      12.764866209999999      8.2226771000000003               7.2185758
    29   1              1.37985895      3.8417094199999999             15.32261014
    30   1             12.07571014     0.29048745999999998              8.35606939
    31   1             10.76072716      6.4080886799999996      4.1468948799999996
    32   1      12.870311559999999      2.5305997200000001             12.79175938
    33   1             11.22789579      3.2542023699999998             16.92240297
    34   1      9.2854452799999994      4.8902768099999996      16.646361120000002
    35   1             11.75871338      10.711406609999999      4.9117253099999996
    36   1              1.56337237      11.983690340000001      11.401008640000001
    37   1      17.029089469999999      1.8946325100000001      2.6510207800000001
    38   1      8.0360584199999998             14.69197056      14.740916199999999
    39   1               1.0048838             15.00082729      7.4292672099999999
    40   1      16.341035160000001      5.5483953100000001              8.58397231
    41   1     0.25843581999999998      8.2386547500000002      7.6486525600000004
    42   1      15.067845800000001      3.8159738399999998      1.9676901200000001
    43   1             15.37284343      6.6647149199999998      17.005831579999999
    44   1      14.735321839999999             12.37772345      1.8786663800000001
    45   1      6.4212133900000001             12.13286656              2.84215536
    46   1      15.498261619999999      17.094605049999998      9.2041155400000001
    47   1     0.26959891000000002      12.405806009999999      5.7757534000000001
    48   1      17.012708589999999      15.616967389999999      1.6648566499999999
    49   1             11.74144542      15.390128750000001             12.78193132
    50   1             10.56413946             14.02632588      5.8473815399999998
    51   1      5.7594997899999996      4.3567057499999997      3.8420195499999998
    52   1             15.83781606     0.73821915999999999      2.6803083499999998
    53   1               7.9233867      13.656398319999999      12.343643889999999
    54   1      5.6674845300000003      6.2319140600000003             11.21147592
    55   1      11.177226020000001      8.4857433600000007      2.6796320699999998
    56   1      7.2693772299999999              0.01054545             11.34404677
    57   1      5.3119363799999997      15.761752469999999      1.6510218800000001
    58   1      5.0590157099999997     0.52890121000000001      9.0484563199999997
    59   1      16.949049389999999      4.3997037399999996      15.884567710000001
    60   1             15.34528661             16.46608384      4.2842781900000002
    61   1              15.6081238      8.4843294199999999              3.07736812
    62   1      8.7360628899999995      4.2936753300000001      9.5909154500000007
    63   1   0.0085350400000000007      13.660735089999999      9.1916002700000004
    64   1             14.35888169      13.785793160000001             12.05088641
    65   1      9.1868200699999996      10.368620460000001      4.2217707400000002
    66   1             15.89110807             14.97357878      4.0123694399999996
    67   1      15.143807900000001      7.2784198599999996              11.9092342
    68   1      16.495114709999999      16.002053069999999              10.5292748
    69   1      8.5396808400000008      12.267402450000001      5.8526754299999997
    70   1               4.7437255      11.500896790000001              11.9126865
    71   1      8.5751605000000009      9.6321244799999999             14.95380368
    72   1             10.41638886             10.51395537             10.89641688
    73   1      5.1609885699999998      8.4285175199999998      13.275527500000001
    74   1              2.34501801              8.08841638      7.5924205200000001
    75   1              0.11397121      9.1866793999999992      6.1689054499999996
    76   1             13.96749831      5.0586175799999999              4.82831879
    77   1             13.01147862      10.782539440000001      4.0335688999999997
    78   1              5.17800686             15.66741083      9.4883777499999997
    79   1      9.2708616100000008             10.90885229      8.3875724999999992
    80   1      3.6713066099999998      8.9581230200000004      3.4205566100000002
    81   1             16.17110259      5.0677070300000002      3.1032348999999999
    82   1             11.45272171      4.6212728600000004      9.1370566899999996
    83   1              2.66679749      13.900641179999999      4.2349175199999998
    84   1      5.1908637300000002             10.33067103      9.5552018899999993
    85   1             16.63084593      6.3703401800000004      6.8552996500000001
    86   1      7.2603054399999998      2.1827447100000001              5.55522545
    87   1             10.42881734      2.0421587300000001      6.8639473000000004
    88   1      16.970303999999999      1.2743178500000001      15.259566270000001
    89   1              10.4653502      4.3353382800000002             10.57347831
    90   1      8.1804050200000002      3.5804350899999999             11.76443285
    91   1      16.141299740000001      8.4603370600000005      5.2857191500000003
    92   1              4.73732621      1.0634902100000001      3.5379093699999999
    93   1      6.6494303099999996     0.18073156000000001      4.7444781000000003
    94   1      1.7254396700000001      10.426057760000001      10.532601830000001
    95   1      6.1618321600000003      7.8475827999999996      3.2132711700000001
    96   1             11.84615368             12.89427152             14.50018848
    97   1      17.227203840000001      4.8721337199999999      11.960132400000001
    98   1      9.6241030500000004      16.046894689999998             13.82192407
    99   1      7.2864770400000003      4.4015975799999998             14.65375654
   100   1             13.03747594     0.46624363000000002      11.064347890000001
   101   1      5.4626688799999998      4.3753355699999998      5.9135755000000003
   102   1      9.1532877100000007      13.883567299999999      5.4690255199999998
   103   1             15.93163942     0.63028554999999997              14.9344409
   104   1      5.9048411700000001              3.51306217     0.24559080999999999
   105   1      4.6097211099999997             16.44987437              0.40090366
   106   1              7.99418468     0.29565065000000001     0.47991091000000002
   107   1      8.2052594400000007      17.047695520000001             14.04601868
   108   1      16.030121430000001      7.1470454700000001      5.5832846399999996
   109   1      6.9256961700000002              1.99237077      11.390549719999999
   110   1             13.36537418             10.64989171      14.308972260000001
   111   1      3.6118862599999999      1.8777417700000001             12.24926194
   112   1      5.2200322300000002      7.6257560499999997      5.9224012899999998
   113   1      17.019930429999999             16.30718573      13.833744019999999
   114   1             15.24308519              1.55724302              4.69709164
   115   1      3.2751274800000001      16.159745000000001      5.7438480299999997
   116   1      17.152353399999999      7.6055928100000001      3.5770907599999999
   117   1             12.99838244      1.8359996199999999             16.03121136
   118   1      11.643148800000001      6.2896612599999999      16.008092649999998
   119   1      11.651338279999999      16.195530309999999      5.0382736599999998
   120   1      3.0653773200000001      9.8155495300000002      8.5789628899999997
   121   1      6.7714542800000004              0.57469766             16.27164642
   122   1      10.162593940000001      5.5938357500000002             10.11309018
   123   1      1.3690490799999999      6.7732640799999997             14.88521884
   124   1      5.4879783700000004             11.67521228      8.6918678600000003
   125   1      16.776821569999999             13.52737978      1.1362126100000001
   126   1      12.209176319999999      14.928146569999999              6.87365841
   127   1             17.07154147      12.968543159999999      10.703037200000001
   128   1      7.7650981000000003             14.62628044      6.2599805799999997
   129   1             14.82328008      5.3893962699999998              17.1307151
   130   1      9.9062674800000003             13.59725675              1.59629471
   131   1              3.08131552      1.5915328500000001      13.406903959999999
   132   1      15.992480629999999              6.26462699      2.4839007099999999
   133   1      6.3692566399999997             15.49093133    0.021785200000000001
   134   1      13.229813180000001      15.593351090000001     0.83728694999999997
   135   1              0.15543952             10.77033224      1.6430431000000001
   136   1      6.5443588400000001      4.1629432900000003              13.2960423
   137   1      9.8162521900000002      15.906279939999999      2.2073014099999999
   138   1      12.743442480000001             13.93788146      8.1629663600000004
   139   1              4.20654577             10.53534325      6.1459061699999999
   140   1      2.5382202399999998      15.297826069999999      4.2540893400000002
   141   1              4.85779271      4.1372193299999998     0.49555278000000003
   142   1      6.5520873899999996      1.6492850400000001      1.3226732800000001
   143   1             10.00041944      8.0834881700000007      5.0937631200000002
   144   1      2.2043813999999999      9.0798629999999996      3.7769337200000002
   145   1      2.9321869399999998      10.830902439999999              1.70014365
   146   1     0.28037511999999998             11.46939358             15.73140755
   147   1      8.2087910500000003      10.230327089999999      9.5761417499999997
   148   1      8.3845154599999994      5.5235321800000001     0.26505923999999997
   149   1              1.16471225      13.958694899999999              12.1380008
   150   1      6.1031355700000001     0.41318117999999998             13.35805352
   151   1      9.0144181099999994      10.315284889999999      12.895558640000001
   152   1      1.0369777899999999      17.192184300000001              1.25762624
   153   1      13.153329530000001      5.4933686699999997             15.20856788
   154   1             11.20177799      7.4025574799999996               6.9785629
   155   1      4.9081173299999996      9.1375515299999996      5.1293187199999997
   156   1      2.7049156399999998      8.8098783300000001             15.91911385
   157   1              0.97947381      7.3083791199999997      6.9464487899999998
   158   1              8.74750607              2.23331218              7.82792011
   159   1      5.9814714699999998             10.22498337      4.5707630200000002
   160   1      10.699469759999999      6.1560768699999997     0.29651163000000003
   161   1      4.9336912899999996      7.7015263200000001             15.69361299
   162   1      9.4089716699999997             14.18292916      15.823619190000001
   163   1      7.7437544699999998      3.8928402900000001      1.7541628300000001
   164   1             12.15708422      2.0352160100000001              1.38739791
   165   1      8.3509183999999994      10.242940150000001              1.43125996
   166   1              3.51199182      4.7681220599999996      5.2573317099999999
   167   1      13.902207020000001             14.34724026      9.8506426699999992
   168   1             12.55227043      4.0817699899999997      6.4986526199999997
   169   1              13.2534867             14.22691144     0.81815537000000005
   170   1     0.75655821999999995             12.49919062              12.6017002
   171   1      7.5073232299999999      6.1815916199999998      3.6871312500000002
   172   1      1.6744557900000001      15.389961059999999      15.259707990000001
   173   1      15.025329169999999      9.8820458799999997      4.3546376200000001
   174   1      2.9719280399999999             14.66240683             12.15711952
   175   1      16.399041650000001      12.294321780000001             16.00913611
   176   1      3.5309781199999999      17.107709020000001      3.6667415800000001
   177   1      3.3351652399999998      8.1331328799999998             10.37812207
   178   1      8.8409351899999997     0.61502871999999997             16.88622496
   179   1             15.97314087      9.0182940699999996      10.253394699999999
   180   1      2.2910474700000001             16.99052365      11.675894100000001
   181   1             13.78173804      4.4785931200000002      3.2093108199999998
   182   1      7.5214773299999997      16.994083790000001      15.516643759999999
   183   1      8.3007461199999995      16.440515829999999             15.54813963
   184   1     0.47829797000000002      6.8056490800000002      12.658293560000001
   185   1    0.078169589999999997      1.0669269100000001      5.4118392699999998
   186   1      9.1930110700000007      11.572999490000001             13.21099023
   187   1             10.69960371              1.62084177      10.864804619999999
   188   1      16.716146599999998      8.9121871699999993      3.5278912199999999
   189   1     0.70494772999999999              16.1563956      17.124903809999999
   190   1             15.76317412      5.0618919499999997             10.11420929
   191   1      14.806297450000001               2.8934734     0.50604358999999999
   192   1      15.119030499999999              12.2381478      4.9855181999999996
   193   1      11.834536630000001     0.17944890999999999      12.449780479999999
   194   1      2.8840243299999999              3.58077566      4.3475507999999996
   195   1      14.597924219999999              2.52532003      15.349306779999999
   196   1      2.1771461799999998      5.9987379900000004    0.087884180000000006
   197   1              0.24643498      4.8431674200000003              6.82057293
   198   1      17.165925959999999      9.4142190100000001             10.46339798
   199   1      13.038057459999999      6.1459544700000004              1.21572941
   200   1      5.6749650100000002      12.415029519999999             13.76545481
   201   1      8.3005645399999999             12.76648071             16.62241392
   202   1      2.0945777900000002      3.1804250700000001      11.778119459999999
   203   1    0.084511939999999994      10.915793499999999      17.071737639999998
   204   1      4.8068841000000004      15.568097590000001      3.4382014999999999
   205   1      3.5217289200000002             15.25334346      8.5147701100000006
   206   1             11.75361837             15.66782323             15.13058936
   207   1             10.08392237      14.502507359999999              10.5625164
   208   1      12.365636950000001     0.14306540000000001      1.9680530199999999
   209   1              2.82168814      4.9034482400000003             15.49467879
   210   1      16.051286730000001      2.8773188699999999      11.580231270000001
   211   1      10.484761000000001      16.286468070000002             14.88415296
   212   1             12.38952967      8.9357975700000001      13.438090320000001
   213   1      6.7069504899999997               0.1144573      8.2093641099999992
   214   1      9.7564166100000005      8.1987627799999991     0.53958220999999995
   215   1      3.6326362300000001      5.3234335000000002             14.53381293
   216   1              12.1663657      12.418921729999999      2.3796217400000002
   217   1      15.794487699999999              5.59678086      5.2081812100000002
   218   1              5.48300345     0.48496988000000002             11.99462353
   219   1      2.1997827999999999      5.8637493200000002      5.5117044499999999
   220   1      13.489032269999999      6.3762742299999999      2.6478646800000001
   221   1      8.7603420700000001              9.28223032      16.668635640000002
   222   1             13.56963728      5.7293016000000003              9.58176469
   223   1             12.66182845      7.9858825800000002             15.09161293
   224   1      10.509364059999999             16.57138449             13.03628136
   225   1             16.64590196      9.4031121899999999      7.7547868700000002
   226   1             11.06802253             12.00441212             14.99616224
   227   1      17.196167890000002      5.3333457500000003             14.96674986
   228   1      9.0675391100000002             13.15425748      10.512364180000001
   229   1      11.985087180000001      2.7854074799999999      15.608824609999999
   230   1      4.9581608299999997      13.240041270000001      6.3036384099999996
   231   1      16.336167840000002      1.0090022999999999      6.1958127999999997
   232   1      16.419717609999999      12.592094469999999      9.3332517799999994
   233   1      6.1643672799999996      2.7656679999999998      3.6223750699999999
   234   1      7.3718413299999996              2.61305538     0.39406967999999998
   235   1      4.7708084399999997      16.452150379999999      16.428153120000001
   236   1      13.044958879999999      8.3429348599999997      10.278173669999999
   237   1              5.23650752      6.4819725100000003      4.4343362199999996
   238   1      15.699446699999999              1.53592851      13.542948640000001
   239   1      15.654620550000001             14.06604059              2.14657571
   240   1      10.823359119999999             13.51381823             16.76091422
   241   1      5.7126730200000004      14.434183559999999     0.82469716000000004
   242   1      4.5362905800000002             15.43696815      6.3955089200000002
   243   1      8.1455575699999994              5.28065915      5.4244450500000001
   244   1      3.8248610699999999     0.93687803999999997      4.8103214799999998
   245   1      4.0821658999999997             16.19119671      11.505417570000001
   246   1      8.4842513000000004      17.148895419999999      1.5218293599999999
   247   1             10.86020997      11.092430029999999      6.8498088900000003
   248   1      13.129544259999999             11.43586917     0.82282089000000003
   249   1             10.15166239              6.59252898      6.2060420499999998
   250   1      8.0714564600000003               6.5978838      11.685924699999999
   251   1      3.0910478700000001      3.2766323700000002      7.1150823000000001
   252   1      5.6446873599999998      3.9161213400000001             10.62057942
   253   1      4.1118258499999998      6.8288768099999997      3.8160534300000002
   254   1             12.20823521      13.265603799999999             13.37576649
   255   1      1.6131464600000001     0.98237646999999995      4.3349633399999998
   256   1      13.930811390000001     0.34977830999999998    0.010500209999999999
   257   1      12.680804439999999      3.1986211400000002      1.8723755200000001
   258   1      3.9908678700000002             16.68729239      1.7794808900000001
   259   1             15.17418782             12.41362208      3.6512980499999999
   260   1      9.9703627699999995      5.9590002499999999             12.70755477
   261   1      6.7336528099999997      3.3477823099999999      15.954990179999999
   262   1     0.37492799999999998      14.388195059999999      3.9552943300000001
   263   1      6.6813424399999999      17.211710549999999     0.82688536000000001
   264   1      2.8171147599999999      5.0173163399999998      8.0357688500000002
   265   1      5.1406820099999999             14.49409492             14.89299952
   266   1      12.436124550000001      1.1608130400000001      5.7931228199999998
   267   1      6.7424603599999999      8.1978254199999991              15.2424172
   268   1      3.0008033300000001             10.68109911      12.334357730000001
   269   1      14.891661020000001              2.85579904      5.8158453300000001
   270   1      15.733713160000001              2.41971018      5.4182098600000002
   271   1      16.395702759999999      3.3088189799999999      6.8235080000000004
   272   1      10.846627229999999      15.725006179999999             11.06941548
   273   1      9.5417583100000005             14.03809306      11.644103640000001
   274   1      12.820851449999999     0.95274404999999995             14.50542153
   275   1             13.20506645      3.4887438400000002             11.72063161
   276   1      9.4841534099999993      6.1185253099999999     0.47811403000000002
   277   1      3.7706152799999999      5.5186254799999999      2.7149242299999998
   278   1      8.1874512199999998      14.144016949999999      4.1260353700000003
   279   1      6.6939601700000004      12.000266269999999             14.74898687
   280   1             10.83826893      14.804771089999999     0.31195771999999999
   281   1             11.81508352             16.31871494      2.8572804500000002
   282   1      7.7030086200000003      9.7780502600000005              3.47320926
   283   1             13.48118605      13.333865339999999      6.2299076099999997
   284   1      14.481973869999999             13.46502194      8.2722873099999994
   285   1      2.0582652700000001      15.755863789999999      2.8966579800000001
   286   1     0.96411349999999996      6.3229558900000002      2.7416319300000001
   287   1      16.384487480000001      2.4456491300000001      8.6586025800000002
   288   1             11.54934699             14.74288258      3.0625846399999999
   289   1      7.6070366500000004      12.935086999999999      8.4663491099999995
   290   1             13.86971054      9.4623921699999993      8.4444173500000002
   291   1      2.8011772499999998      9.2125478199999993      2.2730946900000002
   292   1             12.81872214              1.38804993      2.5194011500000002
   293   1             15.04131864      5.1957155100000003              14.7179188
   294   1      6.9850687899999997             16.10738302      2.7397906000000001
   295   1      14.039381540000001      16.295230020000002      9.6662932300000008
   296   1      4.4360488699999996     0.85012030000000005      1.1382413199999999
   297   1      7.0419725599999996              0.78591453      14.874111259999999
   298   1      15.636358120000001             13.55059657      5.5749852999999998
   299   1      6.6325343999999999      8.9579364399999992             14.20014027
   300   1              6.55417497      9.1145234399999993      7.9466263599999998
   301   1      4.5565026700000004               7.2678455              7.68070114
   302   1              1.73082315      7.8541985900000002      9.6559934399999996
   303   1      6.5125448600000002      7.3429725499999998              1.86504571
   304   1               4.5625076              11.9986564             13.44646322
   305   1             14.50487534      4.4611021199999996      7.7708527299999997
   306   1     0.78751923000000001      15.350837390000001      11.913050889999999
   307   1      5.6588825399999996      3.2315907099999999      12.882080650000001
   308   1      11.550283179999999      9.7534436000000007      9.5043161000000005
   309   1              3.58598018      6.4422358800000001              5.53478972
   310   1      8.1569569499999997      13.992794310000001      9.9045781900000005
   311   1      8.3747006600000002             12.74839367              2.16865855
   312   1     0.42481865000000002             15.05273708      15.238340089999999
   313   1      8.1172825399999997      3.3992266799999999                7.031155
   314   1      16.619327989999999   0.0043202700000000002      1.1609787300000001
   315   1             15.95685617      8.8296414900000002              15.8218005
   316   1              3.50142036             11.92331304             15.09961738
   317   1      6.6729772799999996              5.75804122      6.7855347300000002
   318   1              2.58971873      3.3124317099999998      9.0607017699999997
   319   1             13.94668216      15.607355910000001      8.1112893199999991
   320   1             13.38850693             14.98946132      8.2279279600000006
   321   1      11.427529359999999      8.8241431400000003             16.33117755
   322   1      11.847771440000001      5.3138656299999996     0.27678334999999998
   323   1      9.0731297400000006      7.4149248500000002      6.7166480499999999
   324   1             13.13534681      10.918134820000001              1.93284637
   325   1              0.32106783      3.7690882700000001      1.7603390800000001
   326   1      2.5449671399999998             12.26348619      3.1471163999999998
   327   1      6.0435261499999999      13.247785110000001     0.96174033999999997
   328   1     0.62048599000000004      5.4816130300000001      7.9643481200000004
   329   1      1.4355792700000001             11.64433775     0.42617439000000001
   330   1      17.103588089999999      13.862462949999999      5.1402190499999998
   331   1      14.580970000000001      6.1660573200000002      14.166028819999999
   332   1      4.0465700199999999              0.14760766      9.9192103199999995
   333   1      8.6686553199999992      3.1306194600000001      3.2448474200000001
   334   1      6.3011252300000002             14.01271612             10.79753857
   335   1             10.89632909      2.9579143700000001      11.322466070000001
   336   1              0.61545717      1.4458429800000001      8.7547291900000008
   337   1      3.6398293499999999      5.5802017599999996      9.1579435999999994
   338   1      4.5522694599999998      7.5828487999999998      2.0233848000000001
   339   1      9.6774598699999999      5.3572388000000002      7.5421440400000002
   340   1      12.372734489999999              7.05388445      16.643312290000001
   341   1             15.44344963      4.6646624000000001              9.02096667
   342   1      11.252853050000001              0.16245091      7.0879994000000002
   343   1      5.2298934600000004      1.8394126399999999      10.084102420000001
   344   1              9.46476322     0.19671575999999999      8.6704196400000004
   345   1             15.00258874      5.7181831399999998              8.58139143
   346   1      12.434970809999999      3.6792243400000002      9.9176143799999998
   347   1      5.4086619699999998      16.536895770000001      14.733581729999999
   348   1      11.441135170000001             13.95394061             14.95023917
   349   1             14.89304967             12.91416405              9.98329676
   350   1      7.6018290899999998      1.9636848600000001      3.6825547699999999
   351   1             14.86795673      6.5017923499999997      4.7523419200000001
   352   1      6.9533231400000002      15.954585700000001      9.6478752199999995
   353   1      16.161543179999999              2.61014312      16.382404180000002
   354   1              3.97482055             15.21355397     0.40195241999999998
   355   1              1.88880286      14.893943760000001             11.30006558
   356   1      12.711307290000001             15.89081666             10.47285009
   357   1      3.2585367299999999              1.60597071      9.6167069299999994
   358   1      1.5679173399999999      7.9024597999999999      5.8408028300000003
   359   1     0.97028117000000003      2.6098398600000001      14.387060079999999